<?xml version="1.0"?>
<VTKFile type="UnstructuredGrid"  version="0.1"  >
<UnstructuredGrid>
<Piece  NumberOfPoints="3820" NumberOfCells="7438">
<Points>
<DataArray  type="Float64"  NumberOfComponents="3"  format="ascii">500 250 0  0 250 0  250 500 0  250 0 0  257.8526897895056 499.8766400908052 0  265.6976299228806 499.5066821045166 0  273.527078399347 498.8904911441797 0  281.3333084837991 498.0286753169058 0  289.1086163686179 496.9220851315902 0  296.8453287919921 495.5718126544049 0  304.5358105205615 493.9791904463686 0  312.1724719896004 492.1457902312208 0  319.747776722662 490.0734213573958 0  327.2542488291422 487.7641289973005 0  334.6844803194746 485.220192145616 0  342.0311384412556 482.4441213651282 0  349.286972938211 479.438656300038 0  356.4448231740598 476.2067629834332 0  363.497625234589 472.751630894386 0  370.4384188564475 469.0766698289868 0  377.2603542657452 465.1855065569171 0  383.9566990968459 461.0819811520564 0  390.5208448170273 456.770143328066 0  396.9463134474852 452.2542483217434 0  403.2267638067784 447.5387527886661 0  409.3559978326924 442.6283103667447 0  415.3279667247483 437.5277670604023 0  421.1367768673514 432.2421564936454 0  426.7766956799163 426.7766949133575 0  432.2421572124871 421.1367761018629 0  437.5277677259153 415.327965969872 0  442.6283109817639 409.3559970892619 0  447.5387533512088 403.2267630815527 0  452.2542488210413 396.9463127602605 0  456.7701437791134 390.520844153331 0  461.0819815692666 383.9566984394277 0  465.185506936782 377.2603536234288 0  469.0766701698196 370.4384182364749 0  472.7516312070632 363.4976246209255 0  476.2067632560048 356.4448225948157 0  479.4386565461865 349.2869723693955 0  482.4441215716933 342.0311379195317 0  485.2201923185855 334.6844798390333 0  487.7641291413104 327.2542483859255 0  490.0734214799533 319.7477763008163 0  492.1457903266281 312.1724716180134 0  493.9791905226036 304.5358101795057 0  495.5718127085499 296.845328508154 0  496.9220851685416 289.1086161353161 0  498.0286753405662 281.3333082965076 0  498.8904911589045 273.5270782435742 0  499.5066821104236 265.6976298289911 0  499.8766400923859 257.8526897392072 0  499.8766400910857 242.1473102194213 0  499.5066821052613 234.3023700889562 0  498.890491146401 226.472921624152 0  498.028675320039 218.6666915410024 0  496.92208513504 210.8913836531632 0  495.5718126604291 203.1546712395876 0  493.9791904535073 195.464189511375 0  492.1457902441704 187.8275280608351 0  490.073421372865 180.2522233305833 0  487.7641290146124 172.7457512241382 0  485.2201921634436 165.3155197300435 0  482.4441213852544 157.9688616095775 0  479.4386563186642 150.7130271048316 0  476.2067629907629 143.5551768415165 0  472.7516308996962 136.5023747758329 0  469.0766698366748 129.5615811575368 0  465.185506563478 122.7396457453487 0  461.0819811610836 116.0433009173787 0  456.7701433281581 109.4791551831083 0  452.2542483297535 103.0536865635398 0  447.5387528048159 96.77323621404179 0  442.6283103828627 90.64400218679089 0  437.527767077275 84.67203329439002 0  432.2421564961309 78.86322313529524 0  426.7766949084023 73.22330431512856 0  421.1367761025685 67.75784278817554 0  415.3279659764045 62.47223227984384 0  409.3559970837131 57.37168901364566 0  403.2267630644589 52.46124663553181 0  396.9463127387971 47.74575116336462 0  390.5208441312324 43.22985620586832 0  383.9566984312917 38.91801842557004 0  377.2603536229809 34.81449306295312 0  370.4384182446041 30.92332983464939 0  363.4976246331587 27.24836879916992 0  356.4448226065076 23.79323674949697 0  349.2869723864957 20.56134346121348 0  342.0311379325153 17.55587843344725 0  334.6844798445218 14.77980768339043 0  327.2542483894758 12.23587085984317 0  319.7477763007947 9.926578520040465 0  312.1724716078146 7.854209670753335 0  304.5358101710626 6.020809475509111 0  296.845328500251 4.428187289942457 0  289.1086161300167 3.077914830619079 0  281.3333082927685 1.971324658961407 0  273.5270782395562 1.109508840715648 0  265.6976298262747 0.4933178894055175 0  257.8526897384645 0.1233599075907819 0  242.1473102192436 0.1233599089198378 0  234.3023700897717 0.4933178946874364 0  226.4729216256207 1.10950885346017 0  218.6666915430153 1.971324679706726 0  210.8913836542702 3.077914864784674 0  203.1546712460502 4.42818733833812 0  195.4641895200863 6.0208095445455 0  187.8275280700033 7.854209753475629 0  180.2522233357631 9.926578625630185 0  172.7457512293445 12.23587098369595 0  165.3155197347874 14.77980783484844 0  157.9688616096597 17.55587861471301 0  150.7130271132159 20.56134367770761 0  143.5551768581748 23.79323700139832 0  136.502374793995 27.24836909104968 0  129.5615811781103 30.92333015201484 0  122.7396457527723 34.81449343213163 0  116.0433009267047 38.91801883299794 0  109.4791551969049 43.22985666246575 0  103.053686578051 47.74575165970356 0  96.77323621469927 52.46124719467409 0  90.64400217821211 57.37168962423425 0  84.6720332794365 62.47223293590827 0  78.86322312117258 67.75784351713122 0  73.22330429983279 73.22330510689343 0  67.75784276401902 78.86322392315557 0  62.47223224744764 84.67203406034179 0  57.37168899196297 90.64400294249683 0  52.46124661494784 96.77323696207785 0  47.74575113993916 103.0536872934453 0  43.22985618577172 109.4791558983389 0  38.91801840268752 116.0433016047654 0  34.81449304620847 122.7396464053328 0  30.92332981247012 129.5615817957399 0  27.24836878088215 136.5023754027331 0  23.79323673470793 143.5551774249207 0  20.56134344950007 150.7130276405724 0  17.55587842589759 157.968862086553 0  14.77980767480986 165.3155201793118 0  12.2358708522394 172.7457516339261 0  9.926578513822477 180.2522237206077 0  7.854209668091329 187.8275284025532 0  6.020809473679236 195.4641898371239 0  4.428187287805088 203.1546715109536 0  3.077914829397116 210.8913838776986 0  1.971324658075844 218.6666917142414 0  1.109508840705246 226.472921760554 0  0.4933178890045156 234.3023701800988 0  0.1233599072891991 242.1473102711313 0  0.1233599092413158 257.8526897909854 0  0.4933178956054007 265.6976299248191 0  1.109508856127718 273.5270784025986 0  1.971324683633952 281.3333084880717 0  3.077914869661697 289.1086163765219 0  4.428187346752878 296.8453287980615 0  6.020809554779362 304.5358105256972 0  7.854209767878189 312.172471986091 0  9.926578643128522 319.7477767244666 0  12.23587100369753 327.2542488322139 0  14.77980785600695 334.6844803239826 0  17.55587863041472 342.0311384299983 0  20.56134369274397 349.2869729215311 0  23.79323701378308 356.4448231681442 0  27.24836910438913 363.4976252321851 0  30.92333016190523 370.4384188398803 0  34.81449344174814 377.2603542634883 0  38.91801885107515 383.9566991017804 0  43.22985667255108 390.5208448179352 0  47.74575167295109 396.9463134401827 0  52.46124721880264 403.226763816407 0  57.37168964967967 409.3559978525461 0  62.47223295264905 415.3279667395522 0  67.75784352366662 421.136776885787 0  73.22330510056801 426.7766956938418 0  78.86322391702123 432.2421572302204 0  84.67203406027448 437.527767752493 0  90.64400293162399 442.6283109990422 0  96.77323694065481 447.5387533684348 0  103.0536872696437 452.254248842768 0  109.4791558698857 456.7701437948916 0  116.0433015907448 461.0819815884147 0  122.7396464008792 465.1855069511577 0  129.5615817884044 469.0766701834972 0  136.5023753990457 472.751631217239 0  143.5551774223331 476.2067632640744 0  150.7130276405741 479.4386565505006 0  157.9688620835444 482.4441215729112 0  165.315520172913 485.2201923228865 0  172.7457516268137 487.7641291454496 0  180.2522237135259 490.07342148412 0  187.8275283909192 492.1457903289215 0  195.4641898266258 493.9791905239742 0  203.1546714961745 495.5718127093756 0  210.89138386656 496.9220851688387 0  218.6666917035782 498.0286753405771 0  226.4729217526198 498.8904911585448 0  234.3023701746623 499.5066821106534 0  242.1473102690946 499.8766400926468 0  91.54066675988418 433.9235909098632 0  25.67691749061775 156.4366929013746 0  157.8693348486223 474.1833947921393 0  412.9519637575021 70.01269512732131 0  370.4795397278086 38.77688078945327 0  484.5491996070039 314.1653998922886 0  6.862308746944819 246.1804879490876 0  246.5829032765015 492.6293660310199 0  261.4547667720823 7.102256295092282 0  492.3933509690329 246.8780145395694 0  444.8194775920284 396.2709851542208 0  55.59818029509707 102.6136592111745 0  419.2235077150283 424.6251127502958 0  91.63678980269572 64.56968484117181 0  440.2214496152782 98.87316768458211 0  61.17102098271266 401.7821487998033 0  35.24490857658884 363.0910673962156 0  129.5035679590044 38.26490886396991 0  377.3151943823067 457.3844414013241 0  464.9032467869462 136.2145875974318 0  335.1491669349258 477.1683785590218 0  170.8546794661683 19.75976140298121 0  20.52315087270217 330.0430839886416 0  328.5863824406942 19.62630296401158 0  483.5682597288168 177.8981608595525 0  11.88465099217262 299.3113183715257 0  297.451979730892 487.7081120958115 0  193.9743108834522 485.8105475742134 0  13.031910638534 193.9877203269836 0  207.2854519443628 10.78957363697782 0  468.3712915090275 356.978991480043 0  123.9903828877917 457.1853108146642 0  298.7081576124716 12.2003728904458 0  489.5467594167249 208.1923977096569 0  490.7417661583121 284.2626270171532 0  9.24235650521252 276.3118464408715 0  275.9176388153849 491.7939151794965 0  37.44633641437183 129.7663137506693 0  214.871812886955 490.6366993542612 0  230.9212828815671 7.581914641538205 0  9.258233854215639 215.7373729961521 0  350.0751175232742 28.68806913566594 0  477.7632256925299 335.6570918790813 0  389.4589579737668 49.7397062715519 0  47.03328659128539 383.9999624881455 0  457.5063834731348 377.2850947323334 0  75.1922966443382 80.30407439377211 0  355.8535143763085 468.3874839176102 0  402.6637359430032 439.5722084348281 0  110.58053396575 50.67999042729048 0  149.9330037033782 28.37617049035964 0  474.2054528103454 156.6519553552107 0  453.5702881102556 117.29630591425 0  75.63431274821818 420.2528841331745 0  492.0439360519889 269.4372820503364 0 
[...]
<PointData  Scalars="f_15"> 
<DataArray  type="Float64"  Name="f_15"  format="ascii">0.0000000000000000e+00  0.0000000000000000e+00  0.0000000000000000e+00  0.0000000000000000e+00  0.0000000000000000e+00  0.0000000000000000e+00  0.0000000000000000e+00  0.0000000000000000e+00  0.0000000000000000e+00  0.0000000000000000e+00  0.0000000000000000e+00  0.0000000000000000e+00  0.0000000000000000e+00  0.0000000000000000e+00  0.0000000000000000e+00  0.0000000000000000e+00  0.0000000000000000e+00  0.0000000000000000e+00  0.0000000000000000e+00  0.0000000000000000e+00  0.0000000000000000e+00  0.0000000000000000e+00  0.0000000000000000e+00  0.0000000000000000e+00  0.0000000000000000e+00  0.0000000000000000e+00  0.0000000000000000e+00  0.0000000000000000e+00  0.0000000000000000e+00  0.0000000000000000e+00  0.0000000000000000e+00  0.0000000000000000e+00  0.0000000000000000e+00  0.0000000000000000e+00  0.0000000000000000e+00  0.0000000000000000e+00  0.0000000000000000e+00  0.0000000000000000e+00  0.0000000000000000e+00  0.0000000000000000e+00  0.0000000000000000e+00  0.0000000000000000e+00  0.0000000000000000e+00  0.0000000000000000e+00  0.0000000000000000e+00  0.0000000000000000e+00  0.0000000000000000e+00  0.0000000000000000e+00  0.0000000000000000e+00  0.0000000000000000e+00  0.0000000000000000e+00  0.0000000000000000e+00  0.0000000000000000e+00  0.0000000000000000e+00  0.0000000000000000e+00  0.0000000000000000e+00  0.0000000000000000e+00  0.0000000000000000e+00  0.0000000000000000e+00  0.0000000000000000e+00  0.0000000000000000e+00  0.0000000000000000e+00  0.0000000000000000e+00  0.0000000000000000e+00  0.0000000000000000e+00  0.0000000000000000e+00  0.0000000000000000e+00  0.0000000000000000e+00  0.0000000000000000e+00  0.0000000000000000e+00  0.0000000000000000e+00  0.0000000000000000e+00  0.0000000000000000e+00  0.0000000000000000e+00  0.0000000000000000e+00  0.0000000000000000e+00  0.0000000000000000e+00  0.0000000000000000e+00  0.0000000000000000e+00  0.0000000000000000e+00  0.0000000000000000e+00  0.0000000000000000e+00  0.0000000000000000e+00  0.0000000000000000e+00  0.0000000000000000e+00  0.0000000000000000e+00  0.0000000000000000e+00  0.0000000000000000e+00  0.0000000000000000e+00  0.0000000000000000e+00  0.0000000000000000e+00  0.0000000000000000e+00  0.0000000000000000e+00  0.0000000000000000e+00  0.0000000000000000e+00  0.0000000000000000e+00  0.0000000000000000e+00  0.0000000000000000e+00  0.0000000000000000e+00  0.0000000000000000e+00  0.0000000000000000e+00  0.0000000000000000e+00  0.0000000000000000e+00  0.0000000000000000e+00  0.0000000000000000e+00  0.0000000000000000e+00  0.0000000000000000e+00  0.0000000000000000e+00  0.0000000000000000e+00  0.0000000000000000e+00  0.0000000000000000e+00  0.0000000000000000e+00  0.0000000000000000e+00  0.0000000000000000e+00  0.0000000000000000e+00  0.0000000000000000e+00  0.0000000000000000e+00  0.0000000000000000e+00  0.0000000000000000e+00  0.0000000000000000e+00  0.0000000000000000e+00  0.0000000000000000e+00  0.0000000000000000e+00  0.0000000000000000e+00  0.0000000000000000e+00  0.0000000000000000e+00  0.0000000000000000e+00  0.0000000000000000e+00  0.0000000000000000e+00  0.0000000000000000e+00  0.0000000000000000e+00  0.0000000000000000e+00  0.0000000000000000e+00  0.0000000000000000e+00  0.0000000000000000e+00  0.0000000000000000e+00  0.0000000000000000e+00  0.0000000000000000e+00  0.0000000000000000e+00  0.0000000000000000e+00  0.0000000000000000e+00  0.0000000000000000e+00  0.0000000000000000e+00  0.0000000000000000e+00  0.0000000000000000e+00  0.0000000000000000e+00  0.0000000000000000e+00  0.0000000000000000e+00  0.0000000000000000e+00  0.0000000000000000e+00  0.0000000000000000e+00  0.0000000000000000e+00  0.0000000000000000e+00  0.0000000000000000e+00  0.0000000000000000e+00  0.0000000000000000e+00  0.0000000000000000e+00  0.0000000000000000e+00  0.0000000000000000e+00  0.0000000000000000e+00  0.0000000000000000e+00  0.0000000000000000e+00  0.0000000000000000e+00  0.0000000000000000e+00  0.0000000000000000e+00  0.0000000000000000e+00  0.0000000000000000e+00  0.0000000000000000e+00  0.0000000000000000e+00  0.0000000000000000e+00  0.0000000000000000e+00  0.0000000000000000e+00  0.0000000000000000e+00  0.0000000000000000e+00  0.0000000000000000e+00  0.0000000000000000e+00  0.0000000000000000e+00  0.0000000000000000e+00  0.0000000000000000e+00  0.0000000000000000e+00  0.0000000000000000e+00  0.0000000000000000e+00  0.0000000000000000e+00  0.0000000000000000e+00  0.0000000000000000e+00  0.0000000000000000e+00  0.0000000000000000e+00  0.0000000000000000e+00  0.0000000000000000e+00  0.0000000000000000e+00  0.0000000000000000e+00  0.0000000000000000e+00  0.0000000000000000e+00  0.0000000000000000e+00  0.0000000000000000e+00  0.0000000000000000e+00  0.0000000000000000e+00  0.0000000000000000e+00  0.0000000000000000e+00  0.0000000000000000e+00  0.0000000000000000e+00  0.0000000000000000e+00  0.0000000000000000e+00  0.0000000000000000e+00  0.0000000000000000e+00  0.0000000000000000e+00  0.0000000000000000e+00  0.0000000000000000e+00  0.0000000000000000e+00  0.0000000000000000e+00  0.0000000000000000e+00  0.0000000000000000e+00  0.0000000000000000e+00  0.0000000000000000e+00  0.0000000000000000e+00  0.0000000000000000e+00  0.0000000000000000e+00  0.0000000000000000e+00  0.0000000000000000e+00  0.0000000000000000e+00  0.0000000000000000e+00  0.0000000000000000e+00  0.0000000000000000e+00  0.0000000000000000e+00  0.0000000000000000e+00  0.0000000000000000e+00  0.0000000000000000e+00  0.0000000000000000e+00  0.0000000000000000e+00  0.0000000000000000e+00  0.0000000000000000e+00  0.0000000000000000e+00  0.0000000000000000e+00  0.0000000000000000e+00  0.0000000000000000e+00  0.0000000000000000e+00  0.0000000000000000e+00  0.0000000000000000e+00  0.0000000000000000e+00  0.0000000000000000e+00  0.0000000000000000e+00  0.0000000000000000e+00  0.0000000000000000e+00  0.0000000000000000e+00  0.0000000000000000e+00  0.0000000000000000e+00  0.0000000000000000e+00  0.0000000000000000e+00  0.0000000000000000e+00  0.0000000000000000e+00  0.0000000000000000e+00  0.0000000000000000e+00  0.0000000000000000e+00  0.0000000000000000e+00  0.0000000000000000e+00  0.0000000000000000e+00  0.0000000000000000e+00  0.0000000000000000e+00  0.0000000000000000e+00  0.0000000000000000e+00  0.0000000000000000e+00  0.0000000000000000e+00  0.0000000000000000e+00  0.0000000000000000e+00  0.0000000000000000e+00  0.0000000000000000e+00  0.0000000000000000e+00  0.0000000000000000e+00  0.0000000000000000e+00  0.0000000000000000e+00  0.0000000000000000e+00  0.0000000000000000e+00  0.0000000000000000e+00  0.0000000000000000e+00  0.0000000000000000e+00  0.0000000000000000e+00  0.0000000000000000e+00  0.0000000000000000e+00  0.0000000000000000e+00  0.0000000000000000e+00  0.0000000000000000e+00  0.0000000000000000e+00  0.0000000000000000e+00  0.0000000000000000e+00  0.0000000000000000e+00  0.0000000000000000e+00  0.0000000000000000e+00  0.0000000000000000e+00  0.0000000000000000e+00  0.0000000000000000e+00  0.0000000000000000e+00  0.0000000000000000e+00  0.0000000000000000e+00  0.0000000000000000e+00  0.0000000000000000e+00  0.0000000000000000e+00  0.0000000000000000e+00  0.0000000000000000e+00  0.0000000000000000e+00  0.0000000000000000e+00  0.0000000000000000e+00  0.0000000000000000e+00  0.0000000000000000e+00  0.0000000000000000e+00  0.0000000000000000e+00  0.0000000000000000e+00  0.0000000000000000e+00  0.0000000000000000e+00  0.0000000000000000e+00  0.0000000000000000e+00  0.0000000000000000e+00  0.0000000000000000e+00  0.0000000000000000e+00  0.0000000000000000e+00  0.0000000000000000e+00  0.0000000000000000e+00  0.0000000000000000e+00  0.0000000000000000e+00  0.0000000000000000e+00  0.0000000000000000e+00  0.0000000000000000e+00  0.0000000000000000e+00  0.0000000000000000e+00  0.0000000000000000e+00  0.0000000000000000e+00  0.0000000000000000e+00  0.0000000000000000e+00  0.0000000000000000e+00  0.0000000000000000e+00  0.0000000000000000e+00  0.0000000000000000e+00  0.0000000000000000e+00  0.0000000000000000e+00  0.0000000000000000e+00  0.0000000000000000e+00  0.0000000000000000e+00  0.0000000000000000e+00  0.0000000000000000e+00  0.0000000000000000e+00  0.0000000000000000e+00  0.0000000000000000e+00  0.0000000000000000e+00  0.0000000000000000e+00  0.0000000000000000e+00  0.0000000000000000e+00  0.0000000000000000e+00  0.0000000000000000e+00  0.0000000000000000e+00  0.0000000000000000e+00  0.0000000000000000e+00  0.0000000000000000e+00  0.0000000000000000e+00  0.0000000000000000e+00  0.0000000000000000e+00  0.0000000000000000e+00  0.0000000000000000e+00  0.0000000000000000e+00  0.0000000000000000e+00  0.0000000000000000e+00  0.0000000000000000e+00  0.0000000000000000e+00  0.0000000000000000e+00  0.0000000000000000e+00  0.0000000000000000e+00  0.0000000000000000e+00  0.0000000000000000e+00  0.0000000000000000e+00  0.0000000000000000e+00  0.0000000000000000e+00  0.0000000000000000e+00  0.0000000000000000e+00  0.0000000000000000e+00  0.0000000000000000e+00  0.0000000000000000e+00  0.0000000000000000e+00  0.0000000000000000e+00  0.0000000000000000e+00  0.0000000000000000e+00  0.0000000000000000e+00  0.0000000000000000e+00  0.0000000000000000e+00  0.0000000000000000e+00  0.0000000000000000e+00  0.0000000000000000e+00  0.0000000000000000e+00  0.0000000000000000e+00  0.0000000000000000e+00  0.0000000000000000e+00  0.0000000000000000e+00  0.0000000000000000e+00  0.0000000000000000e+00  0.0000000000000000e+00  0.0000000000000000e+00  0.0000000000000000e+00  0.0000000000000000e+00  0.0000000000000000e+00  0.0000000000000000e+00  0.0000000000000000e+00  0.0000000000000000e+00  0.0000000000000000e+00  0.0000000000000000e+00  0.0000000000000000e+00  0.0000000000000000e+00  0.0000000000000000e+00  0.0000000000000000e+00  0.0000000000000000e+00  0.0000000000000000e+00  0.0000000000000000e+00  0.0000000000000000e+00  0.0000000000000000e+00  0.0000000000000000e+00  0.0000000000000000e+00  0.0000000000000000e+00  0.0000000000000000e+00  0.0000000000000000e+00  0.0000000000000000e+00  0.0000000000000000e+00  0.0000000000000000e+00  0.0000000000000000e+00  0.0000000000000000e+00  0.0000000000000000e+00  0.0000000000000000e+00  0.0000000000000000e+00  0.0000000000000000e+00  0.0000000000000000e+00  0.0000000000000000e+00  0.0000000000000000e+00  0.0000000000000000e+00  0.0000000000000000e+00  0.0000000000000000e+00  0.0000000000000000e+00  0.0000000000000000e+00  0.0000000000000000e+00  0.0000000000000000e+00  0.0000000000000000e+00  0.0000000000000000e+00  0.0000000000000000e+00  0.0000000000000000e+00  0.0000000000000000e+00  0.0000000000000000e+00  0.0000000000000000e+00  0.0000000000000000e+00  0.0000000000000000e+00  0.0000000000000000e+00  0.0000000000000000e+00  0.0000000000000000e+00  0.0000000000000000e+00  0.0000000000000000e+00  0.0000000000000000e+00  0.0000000000000000e+00  0.0000000000000000e+00  0.0000000000000000e+00  0.0000000000000000e+00  0.0000000000000000e+00  0.0000000000000000e+00  0.0000000000000000e+00  0.0000000000000000e+00  0.0000000000000000e+00  0.0000000000000000e+00  0.0000000000000000e+00  0.0000000000000000e+00  0.0000000000000000e+00  0.0000000000000000e+00  0.0000000000000000e+00  0.0000000000000000e+00  0.0000000000000000e+00  0.0000000000000000e+00  0.0000000000000000e+00  0.0000000000000000e+00  0.0000000000000000e+00  0.0000000000000000e+00  0.0000000000000000e+00  0.0000000000000000e+00  0.0000000000000000e+00  0.0000000000000000e+00  0.0000000000000000e+00  0.0000000000000000e+00  0.0000000000000000e+00  0.0000000000000000e+00  0.0000000000000000e+00  0.0000000000000000e+00  0.0000000000000000e+00  0.0000000000000000e+00  0.0000000000000000e+00  0.0000000000000000e+00  0.0000000000000000e+00  0.0000000000000000e+00  0.0000000000000000e+00  0.0000000000000000e+00  0.0000000000000000e+00  0.0000000000000000e+00  0.0000000000000000e+00  0.0000000000000000e+00  0.0000000000000000e+00  0.0000000000000000e+00  0.0000000000000000e+00  0.0000000000000000e+00  0.0000000000000000e+00  0.0000000000000000e+00  0.0000000000000000e+00  0.0000000000000000e+00  0.0000000000000000e+00  0.0000000000000000e+00  0.0000000000000000e+00  0.0000000000000000e+00  0.0000000000000000e+00  0.0000000000000000e+00  0.0000000000000000e+00  0.0000000000000000e+00  0.0000000000000000e+00  0.0000000000000000e+00  0.0000000000000000e+00  0.0000000000000000e+00  0.0000000000000000e+00  0.0000000000000000e+00  0.0000000000000000e+00  0.0000000000000000e+00  0.0000000000000000e+00  0.0000000000000000e+00  0.0000000000000000e+00  0.0000000000000000e+00  0.0000000000000000e+00  0.0000000000000000e+00  0.0000000000000000e+00  0.0000000000000000e+00  0.0000000000000000e+00  0.0000000000000000e+00  0.0000000000000000e+00  0.0000000000000000e+00  0.0000000000000000e+00  0.0000000000000000e+00  0.0000000000000000e+00  0.0000000000000000e+00  0.0000000000000000e+00  0.0000000000000000e+00  0.0000000000000000e+00  0.0000000000000000e+00  0.0000000000000000e+00  0.0000000000000000e+00  0.0000000000000000e+00  0.0000000000000000e+00  0.0000000000000000e+00  0.0000000000000000e+00  0.0000000000000000e+00  0.0000000000000000e+00  0.0000000000000000e+00  0.0000000000000000e+00  0.0000000000000000e+00  0.0000000000000000e+00  0.0000000000000000e+00  0.0000000000000000e+00  0.0000000000000000e+00  0.0000000000000000e+00  0.0000000000000000e+00  0.0000000000000000e+00  0.0000000000000000e+00  0.0000000000000000e+00  0.0000000000000000e+00  0.0000000000000000e+00  0.0000000000000000e+00  0.0000000000000000e+00  0.0000000000000000e+00  0.0000000000000000e+00  0.0000000000000000e+00  0.0000000000000000e+00  0.0000000000000000e+00  0.0000000000000000e+00  0.0000000000000000e+00  0.0000000000000000e+00  0.0000000000000000e+00  0.0000000000000000e+00  0.0000000000000000e+00  0.0000000000000000e+00  0.0000000000000000e+00  0.0000000000000000e+00  0.0000000000000000e+00  0.0000000000000000e+00  0.0000000000000000e+00  0.0000000000000000e+00  0.0000000000000000e+00  0.0000000000000000e+00  0.0000000000000000e+00  0.0000000000000000e+00  0.0000000000000000e+00  0.0000000000000000e+00  0.0000000000000000e+00  0.0000000000000000e+00  0.0000000000000000e+00  0.0000000000000000e+00  0.0000000000000000e+00  0.0000000000000000e+00  0.0000000000000000e+00  0.0000000000000000e+00  0.0000000000000000e+00  0.0000000000000000e+00  0.0000000000000000e+00  0.0000000000000000e+00  0.0000000000000000e+00  0.0000000000000000e+00  0.0000000000000000e+00  0.0000000000000000e+00  0.0000000000000000e+00  0.0000000000000000e+00  0.0000000000000000e+00  0.0000000000000000e+00  0.0000000000000000e+00  0.0000000000000000e+00  0.0000000000000000e+00  0.0000000000000000e+00  0.0000000000000000e+00  0.0000000000000000e+00  0.0000000000000000e+00  0.0000000000000000e+00  0.0000000000000000e+00  0.0000000000000000e+00  0.0000000000000000e+00  0.0000000000000000e+00  0.0000000000000000e+00  0.0000000000000000e+00  0.0000000000000000e+00  0.0000000000000000e+00  0.0000000000000000e+00  0.0000000000000000e+00  0.0000000000000000e+00  0.0000000000000000e+00  0.0000000000000000e+00  0.0000000000000000e+00  0.0000000000000000e+00  0.0000000000000000e+00  0.0000000000000000e+00  0.0000000000000000e+00  0.0000000000000000e+00  0.0000000000000000e+00  0.0000000000000000e+00  0.0000000000000000e+00  0.0000000000000000e+00  0.0000000000000000e+00  0.0000000000000000e+00  0.0000000000000000e+00  0.0000000000000000e+00  0.0000000000000000e+00  0.0000000000000000e+00  0.0000000000000000e+00  0.0000000000000000e+00  0.0000000000000000e+00  0.0000000000000000e+00  0.0000000000000000e+00  0.0000000000000000e+00  0.0000000000000000e+00  0.0000000000000000e+00  0.0000000000000000e+00  0.0000000000000000e+00  0.0000000000000000e+00  0.0000000000000000e+00  0.0000000000000000e+00  0.0000000000000000e+00  0.0000000000000000e+00  0.0000000000000000e+00  0.0000000000000000e+00  0.0000000000000000e+00  0.0000000000000000e+00  0.0000000000000000e+00  0.0000000000000000e+00  0.0000000000000000e+00  0.0000000000000000e+00  0.0000000000000000e+00  0.0000000000000000e+00  0.0000000000000000e+00  0.0000000000000000e+00  0.0000000000000000e+00  0.0000000000000000e+00  0.0000000000000000e+00  0.0000000000000000e+00  0.0000000000000000e+00  0.0000000000000000e+00  0.0000000000000000e+00  0.0000000000000000e+00  0.0000000000000000e+00  0.0000000000000000e+00  0.0000000000000000e+00  0.0000000000000000e+00  0.0000000000000000e+00  0.0000000000000000e+00  0.0000000000000000e+00  0.0000000000000000e+00  0.0000000000000000e+00  0.0000000000000000e+00  0.0000000000000000e+00  0.0000000000000000e+00  0.0000000000000000e+00  0.0000000000000000e+00  0.0000000000000000e+00  0.0000000000000000e+00  0.0000000000000000e+00  0.0000000000000000e+00  0.0000000000000000e+00  0.0000000000000000e+00  0.0000000000000000e+00  0.0000000000000000e+00  0.0000000000000000e+00  0.0000000000000000e+00  0.0000000000000000e+00  0.0000000000000000e+00  0.0000000000000000e+00  0.0000000000000000e+00  0.0000000000000000e+00  0.0000000000000000e+00  0.0000000000000000e+00  0.0000000000000000e+00  0.0000000000000000e+00  0.0000000000000000e+00  0.0000000000000000e+00  0.0000000000000000e+00  0.0000000000000000e+00  0.0000000000000000e+00  0.0000000000000000e+00  0.0000000000000000e+00  0.0000000000000000e+00  0.0000000000000000e+00  0.0000000000000000e+00  0.0000000000000000e+00  0.0000000000000000e+00  0.0000000000000000e+00  0.0000000000000000e+00  0.0000000000000000e+00  0.0000000000000000e+00  0.0000000000000000e+00  0.0000000000000000e+00  0.0000000000000000e+00  0.0000000000000000e+00  0.0000000000000000e+00  0.0000000000000000e+00  0.0000000000000000e+00  0.0000000000000000e+00  0.0000000000000000e+00  0.0000000000000000e+00  0.0000000000000000e+00  0.0000000000000000e+00  0.0000000000000000e+00  0.0000000000000000e+00  0.0000000000000000e+00  0.0000000000000000e+00  0.0000000000000000e+00  0.0000000000000000e+00  0.0000000000000000e+00  0.0000000000000000e+00  0.0000000000000000e+00  0.0000000000000000e+00  0.0000000000000000e+00  0.0000000000000000e+00  0.0000000000000000e+00  0.0000000000000000e+00  0.0000000000000000e+00  0.0000000000000000e+00  0.0000000000000000e+00  0.0000000000000000e+00  0.0000000000000000e+00  0.0000000000000000e+00  0.0000000000000000e+00  0.0000000000000000e+00  0.0000000000000000e+00  0.0000000000000000e+00  0.0000000000000000e+00  0.0000000000000000e+00  0.0000000000000000e+00  0.0000000000000000e+00  0.0000000000000000e+00  0.0000000000000000e+00  0.0000000000000000e+00  0.0000000000000000e+00  0.0000000000000000e+00  0.0000000000000000e+00  0.0000000000000000e+00  0.0000000000000000e+00  0.0000000000000000e+00  0.0000000000000000e+00  0.0000000000000000e+00  0.0000000000000000e+00  0.0000000000000000e+00  0.0000000000000000e+00  0.0000000000000000e+00  0.0000000000000000e+00  0.0000000000000000e+00  0.0000000000000000e+00  0.0000000000000000e+00  0.0000000000000000e+00  0.0000000000000000e+00  0.0000000000000000e+00  0.0000000000000000e+00  0.0000000000000000e+00  0.0000000000000000e+00  0.0000000000000000e+00  0.0000000000000000e+00  0.0000000000000000e+00  0.0000000000000000e+00  0.0000000000000000e+00  0.0000000000000000e+00  0.0000000000000000e+00  0.0000000000000000e+00  0.0000000000000000e+00  0.0000000000000000e+00  0.0000000000000000e+00  0.0000000000000000e+00  0.0000000000000000e+00  0.0000000000000000e+00  0.0000000000000000e+00  0.0000000000000000e+00  0.0000000000000000e+00  0.0000000000000000e+00  0.0000000000000000e+00  0.0000000000000000e+00  0.0000000000000000e+00  0.0000000000000000e+00  0.0000000000000000e+00  0.0000000000000000e+00  0.0000000000000000e+00  0.0000000000000000e+00  0.0000000000000000e+00  0.0000000000000000e+00  0.0000000000000000e+00  0.0000000000000000e+00  0.0000000000000000e+00  0.0000000000000000e+00  0.0000000000000000e+00  0.0000000000000000e+00  0.0000000000000000e+00  0.0000000000000000e+00  0.0000000000000000e+00  0.0000000000000000e+00  0.0000000000000000e